# vtk DataFile Version 3.0
Model Data
ASCII
DATASET UNSTRUCTURED_GRID
POINTS 60 float
0.000000 0.000000 0.000000
0.250000 0.000000 0.000000
0.250000 0.250000 0.000000
0.000000 0.250000 0.000000
0.000000 0.000000 3.000000
0.250000 0.000000 3.000000
0.250000 0.250000 3.000000
0.000000 0.250000 3.000000
0.000000 0.000000 0.272727
0.000000 0.000000 0.545455
0.000000 0.000000 0.818182
0.000000 0.000000 1.090909
0.000000 0.000000 1.363636
0.000000 0.000000 1.636364
0.000000 0.000000 1.909091
0.000000 0.000000 2.181818
0.000000 0.000000 2.454545
0.000000 0.000000 2.727273
0.250000 0.000000 0.272727
0.250000 0.000000 0.545455
0.250000 0.000000 0.818182
0.250000 0.000000 1.090909
0.250000 0.000000 1.363636
0.250000 0.000000 1.636364
0.250000 0.000000 1.909091
0.250000 0.000000 2.181818
0.250000 0.000000 2.454545
0.250000 0.000000 2.727273
0.250000 0.250000 0.272727
0.250000 0.250000 0.545455
0.250000 0.250000 0.818182
0.250000 0.250000 1.090909
0.250000 0.250000 1.363636
0.250000 0.250000 1.636364
0.250000 0.250000 1.909091
0.250000 0.250000 2.181818
0.250000 0.250000 2.454545
0.250000 0.250000 2.727273
0.000000 0.250000 0.272727
0.000000 0.250000 0.545455
0.000000 0.250000 0.818182
0.000000 0.250000 1.090909
0.000000 0.250000 1.363636
0.000000 0.250000 1.636364
0.000000 0.250000 1.909091
0.000000 0.250000 2.181818
0.000000 0.250000 2.454545
0.000000 0.250000 2.727273
0.166667 0.083333 1.500000
0.093750 0.109375 0.153409
0.166600 0.083655 0.953641
0.140625 0.093750 2.062500
0.083333 0.166667 2.590909
0.093750 0.140625 2.301136
0.140625 0.156250 2.846591
0.083333 0.166667 1.772727
0.118744 0.147866 0.846716
0.166667 0.083333 1.227273
0.114527 0.100562 0.393397
0.125000 0.125000 0.542127
CELLS 138 690
4 11 20 10 50
4 21 20 11 50
4 34 43 33 55
4 44 43 34 55
4 31 21 22 57
4 31 22 32 57
4 13 22 12 48
4 23 22 13 48
4 47 16 46 52
4 17 16 47 52
4 21 30 20 50
4 31 30 21 50
4 46 36 37 52
4 37 47 46 52
4 32 22 23 48
4 33 32 23 48
4 12 21 11 57
4 22 21 12 57
4 44 13 43 55
4 14 13 44 55
4 31 30 50 56
4 40 30 31 56
4 46 45 36 53
4 36 45 35 53
4 6 37 5 54
4 27 5 37 54
4 38 39 8 58
4 9 8 39 58
4 25 34 24 51
4 35 34 25 51
4 8 1 0 49
4 18 1 8 49
4 22 12 32 57
4 37 17 47 52
4 12 22 32 48
4 13 33 43 55
4 40 56 10 59
4 30 56 40 59
4 10 56 20 59
4 20 56 30 59
4 11 31 21 50
4 28 58 19 59
4 38 3 28 49
4 15 14 45 51
4 19 28 18 58
4 25 15 16 53
4 47 7 17 54
4 30 20 50 56
4 31 11 21 57
4 16 36 46 52
4 23 13 33 48
4 14 44 34 55
4 36 16 46 53
4 7 6 5 54
4 3 0 1 49
4 24 34 14 51
4 8 28 38 58
4 28 8 18 58
4 25 45 15 53
4 45 25 35 53
4 17 37 47 54
4 17 27 37 54
4 8 28 18 49
4 28 8 38 49
4 45 25 15 51
4 25 45 35 51
4 20 10 50 56
4 38 58 28 59
4 39 40 9 59
4 10 20 19 59
4 40 10 9 59
4 10 19 9 59
4 40 39 30 59
4 30 29 20 59
4 30 39 29 59
4 20 29 19 59
4 28 29 38 59
4 29 39 38 59
4 28 19 29 59
4 39 58 38 59
4 39 9 58 59
4 19 58 9 59
4 7 47 6 54
4 6 47 37 54
4 46 15 45 53
4 16 15 46 53
4 8 0 38 49
4 38 0 3 49
4 25 24 15 51
4 9 18 8 58
4 19 18 9 58
4 14 15 24 51
4 16 52 26 36
4 26 52 16 17
4 52 27 26 36
4 26 27 52 17
4 52 37 27 36
4 27 37 52 17
4 13 48 43 33
4 43 48 13 12
4 48 42 43 33
4 43 42 48 12
4 48 32 42 33
4 42 32 48 12
4 41 50 11 10
4 41 11 50 31
4 40 56 41 10
4 40 41 56 31
4 56 50 41 10
4 56 41 50 31
4 53 25 26 16
4 26 25 53 35
4 26 36 53 16
4 53 36 26 35
4 17 54 4 27
4 17 4 54 7
4 5 4 54 27
4 5 54 4 7
4 31 57 41 11
4 41 57 31 32
4 57 42 41 11
4 41 42 57 32
4 57 12 42 11
4 42 12 57 32
4 28 49 2 18
4 28 2 49 3
4 1 2 49 18
4 1 49 2 3
4 34 55 24 14
4 24 55 34 33
4 55 23 24 14
4 24 23 55 33
4 55 13 23 14
4 23 13 55 33
4 45 51 44 35
4 45 44 51 14
4 34 44 51 35
4 34 51 44 14
CELL_TYPES 138
10
10
10
10
10
10
10
10
10
10
10
10
10
10
10
10
10
10
10
10
10
10
10
10
10
10
10
10
10
10
10
10
10
10
10
10
10
10
10
10
10
10
10
10
10
10
10
10
10
10
10
10
10
10
10
10
10
10
10
10
10
10
10
10
10
10
10
10
10
10
10
10
10
10
10
10
10
10
10
10
10
10
10
10
10
10
10
10
10
10
10
10
10
10
10
10
10
10
10
10
10
10
10
10
10
10
10
10
10
10
10
10
10
10
10
10
10
10
10
10
10
10
10
10
10
10
10
10
10
10
10
10
10
10
10
10
10
10
POINT_DATA 60
VECTORS Displacement float
0.000000 0.000000 0.000000
0.000000 0.000000 0.000000
0.000000 0.000000 0.000000
0.000000 0.000000 0.000000
-0.119882 -0.002314 -0.007375
-0.119952 -0.002263 0.007616
-0.120000 -0.002250 0.007414
-0.119935 -0.002301 -0.007578
-0.001834 -0.000422 -0.001303
-0.006131 -0.000899 -0.002523
-0.012562 -0.001205 -0.003370
-0.021017 -0.001627 -0.004251
-0.031321 -0.001981 -0.005112
-0.043370 -0.002333 -0.005860
-0.056937 -0.002471 -0.006373
-0.071612 -0.002627 -0.006845
-0.087273 -0.002587 -0.007150
-0.103464 -0.002478 -0.007325
-0.001740 -0.000512 0.001326
-0.006148 -0.000955 0.002436
-0.012601 -0.001430 0.003320
-0.020986 -0.001671 0.004354
-0.031278 -0.001860 0.005181
-0.043322 -0.002066 0.005896
-0.056903 -0.002338 0.006406
-0.071646 -0.002458 0.006946
-0.087266 -0.002509 0.007298
-0.103467 -0.002435 0.007501
-0.001579 -0.000586 0.001425
-0.005966 -0.001140 0.002481
-0.012393 -0.001474 0.003340
-0.020949 -0.001729 0.004223
-0.031410 -0.001934 0.005085
-0.043533 -0.002104 0.005801
-0.057042 -0.002379 0.006445
-0.071730 -0.002494 0.006893
-0.087340 -0.002501 0.007186
-0.103496 -0.002435 0.007369
-0.001579 -0.000359 -0.001482
-0.005945 -0.000669 -0.002338
-0.012410 -0.001190 -0.003277
-0.020851 -0.001622 -0.004211
-0.031332 -0.001968 -0.005041
-0.043504 -0.002282 -0.005745
-0.057011 -0.002440 -0.006460
-0.071780 -0.002590 -0.006938
-0.087355 -0.002578 -0.007301
-0.103501 -0.002470 -0.007515
-0.037248 -0.002056 0.001803
-0.000703 -0.000270 -0.000187
-0.016581 -0.001532 0.001271
-0.065166 -0.002480 0.000844
-0.095370 -0.002512 -0.002449
-0.078472 -0.002552 -0.001754
-0.110679 -0.002378 0.000923
-0.050131 -0.002345 -0.002013
-0.013253 -0.001353 -0.000113
-0.026005 -0.001813 0.001541
-0.003508 -0.000690 -0.000104
-0.005885 -0.000884 0.000006
CELL_DATA 138
SCALARS Stress float
LOOKUP_TABLE default
-27872322.890031
-18751820.928434
-79531681.792699
13227154.006293
49293620.261061
-35664067.425216
-27872322.890031
-18751820.928434
-79531681.792699
13227154.006293
49293620.261061
-35664067.425216
-27872322.890031
-18751820.928434
-79531681.792699
13227154.006293
49293620.261061
-35664067.425216
-27872322.890031
-18751820.928434
-79531681.792699
13227154.006293
49293620.261061
-35664067.425216
35257565.013259
33730912.433379
96850741.459465
18143795.381852
23492366.490079
30858841.760905
35257565.013259
33730912.433379
96850741.459465
18143795.381852
23492366.490079
30858841.760905
35257565.013259
33730912.433379
96850741.459465
18143795.381852
23492366.490079
30858841.760905
35257565.013259
33730912.433379
96850741.459465
18143795.381852
23492366.490079
30858841.760905
15393917.147847
14258203.758944
56935854.163133
-7890767.915665
35700434.373389
-28115367.716247
15393917.147847
14258203.758944
56935854.163133
-7890767.915665
35700434.373389
-28115367.716247
15393917.147847
14258203.758944
56935854.163133
-7890767.915665
35700434.373389
-28115367.716247
15393917.147847
14258203.758944
56935854.163133
-7890767.915665
35700434.373389
-28115367.716247
-24696665.992868
-21752352.761396
-66684354.372216
-11787902.659246
16485627.457631
17593113.854789
-24696665.992868
-21752352.761396
-66684354.372216
-11787902.659246
16485627.457631
17593113.854789
-24696665.992868
-21752352.761396
-66684354.372216
-11787902.659246
16485627.457631
17593113.854789
-24696665.992868
-21752352.761396
-66684354.372216
-11787902.659246
16485627.457631
17593113.854789
-11035463.342110
8141864.082337
62995101.205841
4154358.601714
-10211103.264075
3830186.186983
-11035463.342110
8141864.082337
62995101.205841
4154358.601714
-10211103.264075
3830186.186983
-11035463.342110
8141864.082337
62995101.205841
4154358.601714
-10211103.264075
3830186.186983
-11035463.342110
8141864.082337
62995101.205841
4154358.601714
-10211103.264075
3830186.186983
-1993664.275156
10402730.971032
68444254.787752
-1264702.303024
-9565661.696518
-1959359.893116
-1993664.275156
10402730.971032
68444254.787752
-1264702.303024
-9565661.696518
-1959359.893116
-1993664.275156
10402730.971032
68444254.787752
-1264702.303024
-9565661.696518
-1959359.893116
-1993664.275156
10402730.971032
68444254.787752
-1264702.303024
-9565661.696518
-1959359.893116
-16708174.964329
-15497169.835714
-65710393.762113
11048120.134781
32156796.852123
-25281635.437704
-16708174.964329
-15497169.835714
-65710393.762113
11048120.134781
32156796.852123
-25281635.437704
-16708174.964329
-15497169.835714
-65710393.762113
11048120.134781
32156796.852123
-25281635.437704
-16708174.964329
-15497169.835714
-65710393.762113
11048120.134781
32156796.852123
-25281635.437704
26423278.951368
22386904.381050
67200061.964078
15862678.403756
12069876.449015
24036297.910266
26423278.951368
22386904.381050
67200061.964078
15862678.403756
12069876.449015
24036297.910266
26423278.951368
22386904.381050
67200061.964078
15862678.403756
12069876.449015
24036297.910266
26423278.951368
22386904.381050
67200061.964078
15862678.403756
12069876.449015
24036297.910266
2899858.487080
-2616167.639931
-16437299.181860
-1226389.267644
-1740728.762323
-2470879.265252
2899858.487080
-2616167.639931
-16437299.181860
-1226389.267644
-1740728.762323
-2470879.265252
2899858.487080
-2616167.639931
-16437299.181860
-1226389.267644
-1740728.762323
-2470879.265252
2899858.487080
-2616167.639931
-16437299.181860
-1226389.267644
-1740728.762323
-2470879.265252
1800330.500412
-2332233.833120
-13626020.117756
301076.488380
-3003641.175169
-3186798.548912
1800330.500412
-2332233.833120
-13626020.117756
301076.488380
-3003641.175169
-3186798.548912
1800330.500412
-2332233.833120
-13626020.117756
301076.488380
-3003641.175169
-3186798.548912
1800330.500412
-2332233.833120
-13626020.117756
301076.488380
-3003641.175169
-3186798.548912
-4451025.916631
15758748.145605
82430552.655048
3756695.244854
-6746471.251729
527613.371508
-4451025.916631
15758748.145605
82430552.655048
3756695.244854
-6746471.251729
527613.371508
-4451025.916631
15758748.145605
82430552.655048
3756695.244854
-6746471.251729
527613.371508
-4451025.916631
15758748.145605
82430552.655048
3756695.244854
-6746471.251729
527613.371508
-819558.558166
12688487.986135
70965692.037090
-1765229.259198
-12218243.134579
-2179486.111791
-819558.558166
12688487.986135
70965692.037090
-1765229.259198
-12218243.134579
-2179486.111791
-819558.558166
12688487.986135
70965692.037090
-1765229.259198
-12218243.134579
-2179486.111791
-819558.558166
12688487.986135
70965692.037090
-1765229.259198
-12218243.134579
-2179486.111791
6396337.304752
3969599.887312
16676306.098195
-3210952.690306
8928446.725975
-10840223.632617
6396337.304752
3969599.887312
16676306.098195
-3210952.690306
8928446.725975
-10840223.632617
6396337.304752
3969599.887312
16676306.098195
-3210952.690306
8928446.725975
-10840223.632617
6396337.304752
3969599.887312
16676306.098195
-3210952.690306
8928446.725975
-10840223.632617
-6107775.408087
-6493189.231289
-19658463.053491
-4447553.139277
3534683.817297
2804533.314367
-6107775.408087
-6493189.231289
-19658463.053491
-4447553.139277
3534683.817297
2804533.314367
-6107775.408087
-6493189.231289
-19658463.053491
-4447553.139277
3534683.817297
2804533.314367
-6107775.408087
-6493189.231289
-19658463.053491
-4447553.139277
3534683.817297
2804533.314367
-9652751.499937
4824509.367356
53790455.597828
2453072.037506
-9595936.632848
2370484.828403
-9652751.499937
4824509.367356
53790455.597828
2453072.037506
-9595936.632848
2370484.828403
-9652751.499937
4824509.367356
53790455.597828
2453072.037506
-9595936.632848
2370484.828403
-9652751.499937
4824509.367356
53790455.597828
2453072.037506
-9595936.632848
2370484.828403
-4419752.369354
9838255.483429
56527583.454829
-787395.346180
-8411601.720123
-84332.460973
-4419752.369354
9838255.483429
56527583.454829
-787395.346180
-8411601.720123
-84332.460973
-4419752.369354
9838255.483429
56527583.454829
-787395.346180
-8411601.720123
-84332.460973
-4419752.369354
9838255.483429
56527583.454829
-787395.346180
-8411601.720123
-84332.460973
-21374933.896874
-19483744.868515
-76464596.879176
12952954.245142
38103183.191361
-28217881.201136
-21374933.896874
-19483744.868515
-76464596.879176
12952954.245142
38103183.191361
-28217881.201136
-21374933.896874
-19483744.868515
-76464596.879176
12952954.245142
38103183.191361
-28217881.201136
-21374933.896874
-19483744.868515
-76464596.879176
12952954.245142
38103183.191361
-28217881.201136
29026061.741020
24603493.414023
77125889.809545
18285147.205418
14814232.238044
28855521.689101
29026061.741020
24603493.414023
77125889.809545
18285147.205418
14814232.238044
28855521.689101
29026061.741020
24603493.414023
77125889.809545
18285147.205418
14814232.238044
28855521.689101
29026061.741020
24603493.414023
77125889.809545
18285147.205418
14814232.238044
28855521.689101
4540800.527807
-8560845.587426
-56077110.948554
-1180659.235586
-989856.550559
117629.846599
4540800.527807
-8560845.587426
-56077110.948554
-1180659.235586
-989856.550559
117629.846599
4540800.527807
-8560845.587426
-56077110.948554
-1180659.235586
-989856.550559
117629.846599
4540800.527807
-8560845.587426
-56077110.948554
-1180659.235586
-989856.550559
117629.846599
7071563.375219
-5372548.563107
-39060287.665169
1175474.449703
-7168662.177591
1670063.268346
7071563.375219
-5372548.563107
-39060287.665169
1175474.449703
-7168662.177591
1670063.268346
7071563.375219
-5372548.563107
-39060287.665169
1175474.449703
-7168662.177591
1670063.268346
7071563.375219
-5372548.563107
-39060287.665169
1175474.449703
-7168662.177591
1670063.268346
30257568.141806
33794944.130828
84011587.748257
-14323955.335962
13268099.434516
-53013351.334933
30257568.141806
33794944.130828
84011587.748257
-14323955.335962
13268099.434516
-53013351.334933
30257568.141806
33794944.130828
84011587.748257
-14323955.335962
13268099.434516
-53013351.334933
30257568.141806
33794944.130828
84011587.748257
-14323955.335962
13268099.434516
-53013351.334933
29109634.813395
28260300.323405
82340943.464298
-13156493.351786
-1922333.271334
-41193275.350954
29109634.813395
28260300.323405
82340943.464298
-13156493.351786
-1922333.271334
-41193275.350954
29109634.813395
28260300.323405
82340943.464298
-13156493.351786
-1922333.271334
-41193275.350954
29109634.813395
28260300.323405
82340943.464298
-13156493.351786
-1922333.271334
-41193275.350954
-9964516.885302
-11514273.243851
-33283237.530851
-6334686.947890
7282662.834586
7051910.387800
-9964516.885302
-11514273.243851
-33283237.530851
-6334686.947890
7282662.834586
7051910.387800
-9964516.885302
-11514273.243851
-33283237.530851
-6334686.947890
7282662.834586
7051910.387800
-9964516.885302
-11514273.243851
-33283237.530851
-6334686.947890
7282662.834586
7051910.387800
13676990.894697
9599880.341972
28434247.930007
-5870655.892072
9853469.317840
-16072572.816558
13676990.894697
9599880.341972
28434247.930007
-5870655.892072
9853469.317840
-16072572.816558
13676990.894697
9599880.341972
28434247.930007
-5870655.892072
9853469.317840
-16072572.816558
13676990.894697
9599880.341972
28434247.930007
-5870655.892072
9853469.317840
-16072572.816558
-2779125.962227
1164619.061520
3055779.275141
-169692.560621
-1106437.975838
-5951267.165140
-2779125.962227
1164619.061520
3055779.275141
-169692.560621
-1106437.975838
-5951267.165140
-2779125.962227
1164619.061520
3055779.275141
-169692.560621
-1106437.975838
-5951267.165140
-2779125.962227
1164619.061520
3055779.275141
-169692.560621
-1106437.975838
-5951267.165140
-763935.744888
2142449.141900
9236496.925368
400648.242987
871337.289770
-5033700.050067
-763935.744888
2142449.141900
9236496.925368
400648.242987
871337.289770
-5033700.050067
-763935.744888
2142449.141900
9236496.925368
400648.242987
871337.289770
-5033700.050067
-763935.744888
2142449.141900
9236496.925368
400648.242987
871337.289770
-5033700.050067
10017319.558494
-8616403.190678
-65550427.482988
-2864463.628927
-15561682.419914
-13433345.830853
10017319.558494
-8616403.190678
-65550427.482988
-2864463.628927
-15561682.419914
-13433345.830853
10017319.558494
-8616403.190678
-65550427.482988
-2864463.628927
-15561682.419914
-13433345.830853
10017319.558494
-8616403.190678
-65550427.482988
-2864463.628927
-15561682.419914
-13433345.830853
3820864.973759
-3169571.065105
-93744314.067533
-4694346.716566
-8490292.262174
-10231390.380621
3820864.973759
-3169571.065105
-93744314.067533
-4694346.716566
-8490292.262174
-10231390.380621
3820864.973759
-3169571.065105
-93744314.067533
-4694346.716566
-8490292.262174
-10231390.380621
3820864.973759
-3169571.065105
-93744314.067533
-4694346.716566
-8490292.262174
-10231390.380621
-3656337.553005
6125098.924608
42200439.049467
-145969.098149
-2398722.646392
-2455211.526819
-3656337.553005
6125098.924608
42200439.049467
-145969.098149
-2398722.646392
-2455211.526819
-3656337.553005
6125098.924608
42200439.049467
-145969.098149
-2398722.646392
-2455211.526819
-3656337.553005
6125098.924608
42200439.049467
-145969.098149
-2398722.646392
-2455211.526819
-7072427.345179
3634886.630652
33631849.505438
1649009.173897
-5307901.909703
-341212.664205
-7072427.345179
3634886.630652
33631849.505438
1649009.173897
-5307901.909703
-341212.664205
-7072427.345179
3634886.630652
33631849.505438
1649009.173897
-5307901.909703
-341212.664205
-7072427.345179
3634886.630652
33631849.505438
1649009.173897
-5307901.909703
-341212.664205
-42633550.158084
-47630394.061830
-122903806.570506
25274312.037730
28932622.910004
-56501438.612679
-42633550.158084
-47630394.061830
-122903806.570506
25274312.037730
28932622.910004
-56501438.612679
-42633550.158084
-47630394.061830
-122903806.570506
25274312.037730
28932622.910004
-56501438.612679
-42633550.158084
-47630394.061830
-122903806.570506
25274312.037730
28932622.910004
-56501438.612679
47460430.157806
35235877.063307
122813189.579112
22686368.433528
38765947.597648
34766458.892506
47460430.157806
35235877.063307
122813189.579112
22686368.433528
38765947.597648
34766458.892506
47460430.157806
35235877.063307
122813189.579112
22686368.433528
38765947.597648
34766458.892506
47460430.157806
35235877.063307
122813189.579112
22686368.433528
38765947.597648
34766458.892506
12722228.841070
4879322.767275
31634728.856496
-371656.193737
-10111412.096640
17454141.834021
12722228.841070
4879322.767275
31634728.856496
-371656.193737
-10111412.096640
17454141.834021
12722228.841070
4879322.767275
31634728.856496
-371656.193737
-10111412.096640
17454141.834021
12722228.841070
4879322.767275
31634728.856496
-371656.193737
-10111412.096640
17454141.834021
-1809537.527736
-1654296.801249
-7304403.962125
-55653.163995
-3221642.629397
120594.440595
-1809537.527736
-1654296.801249
-7304403.962125
-55653.163995
-3221642.629397
120594.440595
-1809537.527736
-1654296.801249
-7304403.962125
-55653.163995
-3221642.629397
120594.440595
-1809537.527736
-1654296.801249
-7304403.962125
-55653.163995
-3221642.629397
120594.440595
7025965.032456
-816941.041339
14545937.430654
-371656.193737
-11322159.440829
-18302883.236943
7025965.032456
-816941.041339
14545937.430654
-371656.193737
-11322159.440829
-18302883.236943
7025965.032456
-816941.041339
14545937.430654
-371656.193737
-11322159.440829
-18302883.236943
7025965.032456
-816941.041339
14545937.430654
-371656.193737
-11322159.440829
-18302883.236943
-5972546.682948
-590283.202602
-13681514.198501
1460922.008201
-2604156.199533
-22400446.096129
-5972546.682948
-590283.202602
-13681514.198501
1460922.008201
-2604156.199533
-22400446.096129
-5972546.682948
-590283.202602
-13681514.198501
1460922.008201
-2604156.199533
-22400446.096129
-5972546.682948
-590283.202602
-13681514.198501
1460922.008201
-2604156.199533
-22400446.096129
-17275977.195807
-3604229.854114
-2419085.864439
-2867329.186119
-10024005.068841
22477445.800867
-17275977.195807
-3604229.854114
-2419085.864439
-2867329.186119
-10024005.068841
22477445.800867
-17275977.195807
-3604229.854114
-2419085.864439
-2867329.186119
-10024005.068841
22477445.800867
-17275977.195807
-3604229.854114
-2419085.864439
-2867329.186119
-10024005.068841
22477445.800867
1831221.968834
-1921167.353396
3408759.762853
3428778.438299
-14333412.851147
18170305.214358
1831221.968834
-1921167.353396
3408759.762853
3428778.438299
-14333412.851147
18170305.214358
1831221.968834
-1921167.353396
3408759.762853
3428778.438299
-14333412.851147
18170305.214358
1831221.968834
-1921167.353396
3408759.762853
3428778.438299
-14333412.851147
18170305.214358
-2784021.122169
205866.376900
1863837.973417
-6519834.069229
-8820051.339614
21459468.246794
-2784021.122169
205866.376900
1863837.973417
-6519834.069229
-8820051.339614
21459468.246794
-2784021.122169
205866.376900
1863837.973417
-6519834.069229
-8820051.339614
21459468.246794
-2784021.122169
205866.376900
1863837.973417
-6519834.069229
-8820051.339614
21459468.246794
15769931.056426
2065471.385674
7436488.642269
-2392472.656907
-12331142.712722
17134386.172105
15769931.056426
2065471.385674
7436488.642269
-2392472.656907
-12331142.712722
17134386.172105
15769931.056426
2065471.385674
7436488.642269
-2392472.656907
-12331142.712722
17134386.172105
15769931.056426
2065471.385674
7436488.642269
-2392472.656907
-12331142.712722
17134386.172105
11522285.021327
5554127.482411
30086406.442701
-208726.873588
-13163927.502849
19674328.629332
11522285.021327
5554127.482411
30086406.442701
-208726.873588
-13163927.502849
19674328.629332
11522285.021327
5554127.482411
30086406.442701
-208726.873588
-13163927.502849
19674328.629332
11522285.021327
5554127.482411
30086406.442701
-208726.873588
-13163927.502849
19674328.629332
-20152513.338869
-3768428.967542
-683553.128058
2611057.568426
-42458788.909645
-3196022.610585
-20152513.338869
-3768428.967542
-683553.128058
2611057.568426
-42458788.909645
-3196022.610585
-20152513.338869
-3768428.967542
-683553.128058
2611057.568426
-42458788.909645
-3196022.610585
-20152513.338869
-3768428.967542
-683553.128058
2611057.568426
-42458788.909645
-3196022.610585
-46732212.292638
-48784489.146729
-138010095.450794
-18716322.779240
15430624.521734
49051707.231355
-46732212.292638
-48784489.146729
-138010095.450794
-18716322.779240
15430624.521734
49051707.231355
-46732212.292638
-48784489.146729
-138010095.450794
-18716322.779240
15430624.521734
49051707.231355
-46732212.292638
-48784489.146729
-138010095.450794
-18716322.779240
15430624.521734
49051707.231355
2610236.002867
-5437481.042630
-37035148.324039
-1760854.149715
-7954189.561167
-2960477.976408
2610236.002867
-5437481.042630
-37035148.324039
-1760854.149715
-7954189.561167
-2960477.976408
2610236.002867
-5437481.042630
-37035148.324039
-1760854.149715
-7954189.561167
-2960477.976408
2610236.002867
-5437481.042630
-37035148.324039
-1760854.149715
-7954189.561167
-2960477.976408
9751163.417466
19398285.509719
92696211.818000
2417861.339466
-10307272.521710
-14195848.871201
9751163.417466
19398285.509719
92696211.818000
2417861.339466
-10307272.521710
-14195848.871201
9751163.417466
19398285.509719
92696211.818000
2417861.339466
-10307272.521710
-14195848.871201
9751163.417466
19398285.509719
92696211.818000
2417861.339466
-10307272.521710
-14195848.871201
-13215772.364647
-11587645.165916
-29710425.831090
5948333.898380
4383021.654878
-19000781.282208
-13215772.364647
-11587645.165916
-29710425.831090
5948333.898380
4383021.654878
-19000781.282208
-13215772.364647
-11587645.165916
-29710425.831090
5948333.898380
4383021.654878
-19000781.282208
-13215772.364647
-11587645.165916
-29710425.831090
5948333.898380
4383021.654878
-19000781.282208
-1918020.811062
-1256503.634395
-5604748.011387
10264.884506
-1146263.331690
-4720816.692700
-1918020.811062
-1256503.634395
-5604748.011387
10264.884506
-1146263.331690
-4720816.692700
-1918020.811062
-1256503.634395
-5604748.011387
10264.884506
-1146263.331690
-4720816.692700
-1918020.811062
-1256503.634395
-5604748.011387
10264.884506
-1146263.331690
-4720816.692700
-9163512.767153
-679050.280728
21391845.800240
-1941003.797970
-10254435.979441
-32083657.704505
-9163512.767153
-679050.280728
21391845.800240
-1941003.797970
-10254435.979441
-32083657.704505
-9163512.767153
-679050.280728
21391845.800240
-1941003.797970
-10254435.979441
-32083657.704505
-9163512.767153
-679050.280728
21391845.800240
-1941003.797970
-10254435.979441
-32083657.704505
7317777.165320
1349619.626404
17472882.874680
-208726.873588
-12877433.276769
-20174631.628551
7317777.165320
1349619.626404
17472882.874680
-208726.873588
-12877433.276769
-20174631.628551
7317777.165320
1349619.626404
17472882.874680
-208726.873588
-12877433.276769
-20174631.628551
7317777.165320
1349619.626404
17472882.874680
-208726.873588
-12877433.276769
-20174631.628551
120102.968029
-253231.651658
-4205799.709725
-156773.049486
-2394383.117862
-8973780.518789
120102.968029
-253231.651658
-4205799.709725
-156773.049486
-2394383.117862
-8973780.518789
120102.968029
-253231.651658
-4205799.709725
-156773.049486
-2394383.117862
-8973780.518789
120102.968029
-253231.651658
-4205799.709725
-156773.049486
-2394383.117862
-8973780.518789
12361935.681826
6589743.959405
26751849.307553
1893241.851378
-10049768.896409
15499420.017147
12361935.681826
6589743.959405
26751849.307553
1893241.851378
-10049768.896409
15499420.017147
12361935.681826
6589743.959405
26751849.307553
1893241.851378
-10049768.896409
15499420.017147
12361935.681826
6589743.959405
26751849.307553
1893241.851378
-10049768.896409
15499420.017147
-9247962.587537
-5078265.212460
-21563628.299826
-456377.327128
-8165904.930095
10668292.818520
-9247962.587537
-5078265.212460
-21563628.299826
-456377.327128
-8165904.930095
10668292.818520
-9247962.587537
-5078265.212460
-21563628.299826
-456377.327128
-8165904.930095
10668292.818520
-9247962.587537
-5078265.212460
-21563628.299826
-456377.327128
-8165904.930095
10668292.818520
-835334.487131
-1208669.106817
-7072112.075203
-156773.049486
-5116254.211642
2647286.589881
-835334.487131
-1208669.106817
-7072112.075203
-156773.049486
-5116254.211642
2647286.589881
-835334.487131
-1208669.106817
-7072112.075203
-156773.049486
-5116254.211642
2647286.589881
-835334.487131
-1208669.106817
-7072112.075203
-156773.049486
-5116254.211642
2647286.589881
-5667112.605260
-442312.030116
-483958.448364
76636.528735
-1282061.493249
-4139119.803523
-5667112.605260
-442312.030116
-483958.448364
76636.528735
-1282061.493249
-4139119.803523
-5667112.605260
-442312.030116
-483958.448364
76636.528735
-1282061.493249
-4139119.803523
-5667112.605260
-442312.030116
-483958.448364
76636.528735
-1282061.493249
-4139119.803523
-10242716.682011
-10242716.682011
-30728150.046034
0.000000
-14775678.168582
-38481790.215333
-10242716.682011
-10242716.682011
-30728150.046034
0.000000
-14775678.168582
-38481790.215333
-10242716.682011
-10242716.682011
-30728150.046034
0.000000
-14775678.168582
-38481790.215333
-10242716.682011
-10242716.682011
-30728150.046034
0.000000
-14775678.168582
-38481790.215333
2775132.923624
-2309362.365498
2031123.412408
-175026.492117
-2419439.492092
-19411394.286536
2775132.923624
-2309362.365498
2031123.412408
-175026.492117
-2419439.492092
-19411394.286536
2775132.923624
-2309362.365498
2031123.412408
-175026.492117
-2419439.492092
-19411394.286536
2775132.923624
-2309362.365498
2031123.412408
-175026.492117
-2419439.492092
-19411394.286536
-2131844.883952
2108507.063011
-10501622.025789
950426.443864
-19182372.542945
-25929149.358391
-2131844.883952
2108507.063011
-10501622.025789
950426.443864
-19182372.542945
-25929149.358391
-2131844.883952
2108507.063011
-10501622.025789
950426.443864
-19182372.542945
-25929149.358391
-2131844.883952
2108507.063011
-10501622.025789
950426.443864
-19182372.542945
-25929149.358391
3933813.605273
-7395563.831806
-8661835.735907
2349907.423518
-10383563.284819
-35628873.064254
3933813.605273
-7395563.831806
-8661835.735907
2349907.423518
-10383563.284819
-35628873.064254
3933813.605273
-7395563.831806
-8661835.735907
2349907.423518
-10383563.284819
-35628873.064254
3933813.605273
-7395563.831806
-8661835.735907
2349907.423518
-10383563.284819
-35628873.064254
-4206801.290180
641200.032266
-5903386.731404
42992.308839
-3792372.421165
-12040914.408847
-4206801.290180
641200.032266
-5903386.731404
42992.308839
-3792372.421165
-12040914.408847
-4206801.290180
641200.032266
-5903386.731404
42992.308839
-3792372.421165
-12040914.408847
-4206801.290180
641200.032266
-5903386.731404
42992.308839
-3792372.421165
-12040914.408847
1971402.117705
-3767340.071186
-5020886.764798
397391.306849
-2771500.531224
-10326862.884237
1971402.117705
-3767340.071186
-5020886.764798
397391.306849
-2771500.531224
-10326862.884237
1971402.117705
-3767340.071186
-5020886.764798
397391.306849
-2771500.531224
-10326862.884237
1971402.117705
-3767340.071186
-5020886.764798
397391.306849
-2771500.531224
-10326862.884237
412642.704912
567883.431400
-637863.264179
-55653.163995
-1068574.203100
-6352339.006814
412642.704912
567883.431400
-637863.264179
-55653.163995
-1068574.203100
-6352339.006814
412642.704912
567883.431400
-637863.264179
-55653.163995
-1068574.203100
-6352339.006814
412642.704912
567883.431400
-637863.264179
-55653.163995
-1068574.203100
-6352339.006814
-874869.625139
-671584.418657
-1908703.436610
448272.855552
914993.184620
-8339052.164057
-874869.625139
-671584.418657
-1908703.436610
448272.855552
914993.184620
-8339052.164057
-874869.625139
-671584.418657
-1908703.436610
448272.855552
914993.184620
-8339052.164057
-874869.625139
-671584.418657
-1908703.436610
448272.855552
914993.184620
-8339052.164057
940291.677381
-10389085.759697
-17642401.519582
2349907.423518
-12061283.169117
16124702.966585
940291.677381
-10389085.759697
-17642401.519582
2349907.423518
-12061283.169117
16124702.966585
940291.677381
-10389085.759697
-17642401.519582
2349907.423518
-12061283.169117
16124702.966585
940291.677381
-10389085.759697
-17642401.519582
2349907.423518
-12061283.169117
16124702.966585
-5267428.844736
-1027076.897773
-19908373.908140
950426.443864
-20790172.139743
25873038.504028
-5267428.844736